# vtk DataFile Version 3.0
BRL-CAD VTK regress: structured points volume 3x3x3
ASCII
DATASET STRUCTURED_POINTS
DIMENSIONS 3 3 3
ORIGIN 0 0 0
SPACING 1 1 1
POINT_DATA 27
SCALARS intensity float
LOOKUP_TABLE default
0
10
20
30
40
50
60
70
80
90
100
110
120
130
140
150
160
170
180
190
200
210
220
230
240
250
255
