# vtk DataFile Version 3.0
BRL-CAD VTK regress: 2D structured points 4x4x1
ASCII
DATASET STRUCTURED_POINTS
DIMENSIONS 4 4 1
ORIGIN 0 0 0
SPACING 1 1 1
POINT_DATA 16
SCALARS height float
LOOKUP_TABLE default
0 1 2 3 4 5 6 7 8 9 10 11 12 13 14 15
